8
 energy: -7.336182650602 gnorm: 0.014336136361 xtb: 6.7.1 (unknown)
C            0.75502600000000        0.00593000000000        0.03847300000000
C           -0.75502600000000       -0.00593000000000       -0.03847300000000
H            1.19118200000000       -0.27741400000000       -0.92407700000000
H            1.10679200000000       -0.69958400000000        0.79711000000000
H            1.11869000000000        1.00383400000000        0.30106800000000
H           -1.11868800000000       -1.00383500000000       -0.30106600000000
H           -1.10679400000000        0.69958200000000       -0.79711100000000
H           -1.19118100000000        0.27741700000000        0.92407700000000
