5
 energy: -20.688760713365 gnorm: 0.029898060339 xtb: 6.7.1 (unknown)
F            0.06093300000000        0.93840900000000       -1.04061300000000
C           -0.00046000000000        0.07269600000000        0.00366100000000
F           -0.07211600000000        0.82825800000000        1.12959600000000
Cl          -1.45075200000000       -0.92439200000000       -0.13585900000000
Cl           1.46239600000000       -0.91497100000000        0.04321500000000
