5
 energy: -21.075484688315 gnorm: 0.053457217059 xtb: 6.7.1 (unknown)
F           -0.81157000000000       -0.46662100000000       -0.96368600000000
C            0.00000000000000        0.00000000000000        0.00000000000000
F           -0.25051800000000        1.30412700000000        0.20387200000000
F           -0.21773500000000       -0.68102100000000        1.13748500000000
F            1.27982300000000       -0.15648500000000       -0.37767200000000
