8
 energy: -32.658765770713 gnorm: 0.075609561000 xtb: 6.7.1 (unknown)
F           -1.11813400000000        0.32246600000000        1.36054300000000
C           -0.75400800000000        0.10605200000000        0.07085300000000
F           -1.18653300000000        1.17567400000000       -0.64437500000000
F           -1.46159000000000       -0.96840900000000       -0.36225200000000
C            0.75400800000000       -0.10605300000000       -0.07085500000000
F            1.46158900000000        0.96840900000000        0.36225300000000
F            1.18653200000000       -1.17567500000000        0.64437500000000
F            1.11813700000000       -0.32246500000000       -1.36054300000000
