14
 energy: -17.896557025098 gnorm: 0.036521935206 xtb: 6.7.1 (unknown)
C           -0.64557400000000        1.22240700000000        0.45246600000000
C           -0.02123200000000        0.09162500000000       -0.35494800000000
C            1.45212200000000       -0.08368100000000       -0.01015500000000
C           -0.79006700000000       -1.20985800000000       -0.16674900000000
F           -0.10017900000000        0.43233800000000       -1.67483800000000
H           -0.12084800000000        2.16544300000000        0.26509800000000
H           -1.68835500000000        1.37814000000000        0.15562900000000
H           -0.61684200000000        1.01577800000000        1.52712200000000
H            1.90523600000000       -0.85933300000000       -0.63690100000000
H            2.00625000000000        0.84104900000000       -0.20399900000000
H            1.59171700000000       -0.35934800000000        1.04004900000000
H           -0.76897900000000       -1.54503500000000        0.87518100000000
H           -0.36837700000000       -2.00130100000000       -0.79568100000000
H           -1.83487300000000       -1.08822400000000       -0.47227500000000
